 Gaussian 16, Revision B.01,
 Gaussian 16:  EM64L-G16RevB.01 20-Dec-2017

 ----------------------
 # B3LYP /6-31G* 5d opt
 ----------------------

 -------------------------------
 Coordinates from ORCA-job input
 -------------------------------
 Symbolic Z-matrix:
 Charge =  0 Multiplicity = 1

 SCF Done:  E(RB3LYP) =  -891.297690221     A.U. after   14 cycles
 SCF Done:  E(RB3LYP) =  -891.360055443     A.U. after   12 cycles
 SCF Done:  E(RB3LYP) =  -891.389285195     A.U. after   14 cycles
 SCF Done:  E(RB3LYP) =  -891.389712633     A.U. after   13 cycles
 SCF Done:  E(RB3LYP) =  -891.391111149     A.U. after   14 cycles
 SCF Done:  E(RB3LYP) =  -891.394997209     A.U. after   13 cycles
 SCF Done:  E(RB3LYP) =  -891.396319014     A.U. after   14 cycles
 SCF Done:  E(RB3LYP) =  -891.397251995     A.U. after   14 cycles
 SCF Done:  E(RB3LYP) =  -891.397582362     A.U. after   12 cycles
 SCF Done:  E(RB3LYP) =  -891.397959913     A.U. after   11 cycles
 SCF Done:  E(RB3LYP) =  -891.399442691     A.U. after   11 cycles
 SCF Done:  E(RB3LYP) =  -891.399454035     A.U. after   10 cycles
 SCF Done:  E(RB3LYP) =  -891.399455749     A.U. after    8 cycles
 SCF Done:  E(RB3LYP) =  -891.399456138     A.U. after    9 cycles
 SCF Done:  E(RB3LYP) =  -891.399456559     A.U. after    8 cycles
 SCF Done:  E(RB3LYP) =  -891.399463268     A.U. after   10 cycles
 SCF Done:  E(RB3LYP) =  -891.399464822     A.U. after   10 cycles
 SCF Done:  E(RB3LYP) =  -891.399466683     A.U. after    8 cycles
 SCF Done:  E(RB3LYP) =  -891.399467005     A.U. after    8 cycles
 SCF Done:  E(RB3LYP) =  -891.399467047     A.U. after    8 cycles
 Optimization completed.
    -- Stationary point found.

                         Standard orientation:
 ---------------------------------------------------------------------
 Center     Atomic      Atomic             Coordinates (Angstroms)
 Number     Number       Type             X           Y           Z
 ---------------------------------------------------------------------
      1         15           0        2.025601    0.132426    0.040967
      2          6           0        0.532799   -0.862215    0.371192
      3          1           0        0.613000   -1.795586   -0.198411
      4          7           0       -0.624183   -0.104479   -0.079681
      5          1           0        0.520274   -1.131393    1.443770
      6          6           0       -1.879736   -0.807210    0.074452
      7          1           0       -0.686358    0.796466    0.392615
      8          6           0       -3.042123    0.182139    0.014542
      9          8           0        2.000352    1.512300    0.588493
     10          8           0        2.276580    0.057754   -1.566191
     11          8           0        3.166444   -0.874767    0.595514
     12          1           0        4.027480   -0.428302    0.666525
     13          1           0        1.909430    0.850751   -1.992440
     14          1           0       -1.973155   -1.347966    1.040090
     15          1           0       -1.986705   -1.565856   -0.715422
     16          8           0       -2.915493    1.366627    0.191433
     17          8           0       -4.266755   -0.360837   -0.197379
     18          1           0       -4.193365   -1.318065   -0.349537
 ---------------------------------------------------------------------

 The electronic state is 1-A.
 Alpha  occ. eigenvalues --  -77.20906 -19.20444 -19.18450 -19.17811 -19.14604
 Alpha  occ. eigenvalues --  -19.10634 -14.33779 -10.33064 -10.24303 -10.22814
 Alpha  occ. eigenvalues --   -6.66910  -4.83315  -4.83178  -4.82943  -1.11416
 Alpha  occ. eigenvalues --   -1.08008  -1.03513  -1.03376  -0.96215  -0.92946
 Alpha  occ. eigenvalues --   -0.76223  -0.69054  -0.62926  -0.62013  -0.55794
 Alpha  occ. eigenvalues --   -0.54675  -0.50357  -0.49641  -0.46769  -0.46490
 Alpha  occ. eigenvalues --   -0.45474  -0.44385  -0.42226  -0.41347  -0.40760
 Alpha  occ. eigenvalues --   -0.38816  -0.37067  -0.36265  -0.33522  -0.32889
 Alpha  occ. eigenvalues --   -0.29619  -0.29284  -0.28500  -0.24730
 Alpha virt. eigenvalues --   -0.00187   0.03911   0.04093   0.05441   0.08177
 Alpha virt. eigenvalues --    0.10731   0.11608   0.13424   0.13642   0.14988
 Alpha virt. eigenvalues --    0.15423   0.16268   0.18149   0.21158   0.22604

 Mulliken charges:
               1
     1  P    1.077535
     2  C   -0.324410
     3  H    0.185891
     4  N   -0.572374
     5  H    0.165386
     6  C   -0.230863
     7  H    0.347805
     8  C    0.571580
     9  O   -0.556129
    10  O   -0.662301
    11  O   -0.668270
    12  H    0.448128
    13  H    0.446552
    14  H    0.153970
    15  H    0.156931
    16  O   -0.393152
    17  O   -0.563849
    18  H    0.417570
 Sum of Mulliken charges =  -0.00000

 Dipole moment (field-independent basis, Debye):
    X=              0.2726    Y=             -4.8709    Z=             -0.7433  Tot=              4.9348
 Quadrupole moment (field-independent basis, Debye-Ang):
   XX=            -61.7956   YY=            -67.8486   ZZ=            -62.7304
   XY=             12.3832   XZ=              0.6287   YZ=             -4.1633

 1\1\GINC-N036\FOpt\RB3LYP\6-31G(d)\C3H8N1O5P1\GVALLVER\23-Mar-2023\0\\
 # B3LYP /6-31G* 5d opt\\Coordinates from ORCA-job input\\0,1\P,-2.5317
 632595,1.1384416594,0.2269270435\C,-0.7953016876,1.2569733343,-0.31847
 87505\H,-0.2333274662,0.4440521847,0.1562893125\N,-0.2712515101,2.5420
 534288,0.1174086936\H,-0.7579791802,1.0885159629,-1.4108465745\C,1.124
 9281644,2.7439934147,-0.2049327999\H,-0.816213317,3.3147602964,-0.2628
 17074\C,1.4671200272,4.2310422371,-0.1332733212\O,-3.400239931,2.27341
 25932,-0.1756449325\O,-2.4877994951,0.8698459426,1.8323699242\O,-2.907

 Normal termination of Gaussian 16 at Thu Mar 23 12:57:14 2023.
